# vtk DataFile Version 3.0
Generated by MFEM
ASCII
DATASET UNSTRUCTURED_GRID
POINTS 225 double
0 0 0
0.285714 0 0
0.571429 0 0
0.857143 0 0
1.14286 0 0
1.42857 0 0
1.71429 0 0
2 0 0
2.28571 0 0
2.57143 0 0
2.85714 0 0
3.14286 0 0
3.42857 0 0
3.71429 0 0
4 0 0
0 0.285714 0
0.285714 0.285714 0
0.571429 0.285714 0
0.857143 0.285714 0
1.14286 0.285714 0
1.42857 0.285714 0
1.71429 0.285714 0
2 0.285714 0
2.28571 0.285714 0
2.57143 0.285714 0
2.85714 0.285714 0
3.14286 0.285714 0
3.42857 0.285714 0
3.71429 0.285714 0
4 0.285714 0
0 0.571429 0
0.285714 0.571429 0
0.571429 0.571429 0
0.857143 0.571429 0
1.14286 0.571429 0
1.42857 0.571429 0
1.71429 0.571429 0
2 0.571429 0
2.28571 0.571429 0
2.57143 0.571429 0
2.85714 0.571429 0
3.14286 0.571429 0
3.42857 0.571429 0
3.71429 0.571429 0
4 0.571429 0
0 0.857143 0
0.285714 0.857143 0
0.571429 0.857143 0
0.857143 0.857143 0
1.14286 0.857143 0
1.42857 0.857143 0
1.71429 0.857143 0
2 0.857143 0
2.28571 0.857143 0
2.57143 0.857143 0
2.85714 0.857143 0
3.14286 0.857143 0
3.42857 0.857143 0
3.71429 0.857143 0
4 0.857143 0
0 1.14286 0
0.285714 1.14286 0
0.571429 1.14286 0
0.857143 1.14286 0
1.14286 1.14286 0
1.42857 1.14286 0
1.71429 1.14286 0
2 1.14286 0
2.28571 1.14286 0
2.57143 1.14286 0
2.85714 1.14286 0
3.14286 1.14286 0
3.42857 1.14286 0
3.71429 1.14286 0
4 1.14286 0
0 1.42857 0
0.285714 1.42857 0
0.571429 1.42857 0
0.857143 1.42857 0
1.14286 1.42857 0
1.42857 1.42857 0
1.71429 1.42857 0
2 1.42857 0
2.28571 1.42857 0
2.57143 1.42857 0
2.85714 1.42857 0
3.14286 1.42857 0
3.42857 1.42857 0
3.71429 1.42857 0
4 1.42857 0
0 1.71429 0
0.285714 1.71429 0
0.571429 1.71429 0
0.857143 1.71429 0
1.14286 1.71429 0
1.42857 1.71429 0
1.71429 1.71429 0
2 1.71429 0
2.28571 1.71429 0
2.57143 1.71429 0
2.85714 1.71429 0
3.14286 1.71429 0
3.42857 1.71429 0
3.71429 1.71429 0
4 1.71429 0
0 2 0
0.285714 2 0
0.571429 2 0
0.857143 2 0
1.14286 2 0
1.42857 2 0
1.71429 2 0
2 2 0
2.28571 2 0
2.57143 2 0
2.85714 2 0
3.14286 2 0
3.42857 2 0
3.71429 2 0
4 2 0
0 2.28571 0
0.285714 2.28571 0
0.571429 2.28571 0
0.857143 2.28571 0
1.14286 2.28571 0
1.42857 2.28571 0
1.71429 2.28571 0
2 2.28571 0
2.28571 2.28571 0
2.57143 2.28571 0
2.85714 2.28571 0
3.14286 2.28571 0
3.42857 2.28571 0
3.71429 2.28571 0
4 2.28571 0
0 2.57143 0
0.285714 2.57143 0
0.571429 2.57143 0
0.857143 2.57143 0
1.14286 2.57143 0
1.42857 2.57143 0
1.71429 2.57143 0
2 2.57143 0
2.28571 2.57143 0
2.57143 2.57143 0
2.85714 2.57143 0
3.14286 2.57143 0
3.42857 2.57143 0
3.71429 2.57143 0
4 2.57143 0
0 2.85714 0
0.285714 2.85714 0
0.571429 2.85714 0
0.857143 2.85714 0
1.14286 2.85714 0
1.42857 2.85714 0
1.71429 2.85714 0
2 2.85714 0
2.28571 2.85714 0
2.57143 2.85714 0
2.85714 2.85714 0
3.14286 2.85714 0
3.42857 2.85714 0
3.71429 2.85714 0
4 2.85714 0
0 3.14286 0
0.285714 3.14286 0
0.571429 3.14286 0
0.857143 3.14286 0
1.14286 3.14286 0
1.42857 3.14286 0
1.71429 3.14286 0
2 3.14286 0
2.28571 3.14286 0
2.57143 3.14286 0
2.85714 3.14286 0
3.14286 3.14286 0
3.42857 3.14286 0
3.71429 3.14286 0
4 3.14286 0
0 3.42857 0
0.285714 3.42857 0
0.571429 3.42857 0
0.857143 3.42857 0
1.14286 3.42857 0
1.42857 3.42857 0
1.71429 3.42857 0
2 3.42857 0
2.28571 3.42857 0
2.57143 3.42857 0
2.85714 3.42857 0
3.14286 3.42857 0
3.42857 3.42857 0
3.71429 3.42857 0
4 3.42857 0
0 3.71429 0
0.285714 3.71429 0
0.571429 3.71429 0
0.857143 3.71429 0
1.14286 3.71429 0
1.42857 3.71429 0
1.71429 3.71429 0
2 3.71429 0
2.28571 3.71429 0
2.57143 3.71429 0
2.85714 3.71429 0
3.14286 3.71429 0
3.42857 3.71429 0
3.71429 3.71429 0
4 3.71429 0
0 4 0
0.285714 4 0
0.571429 4 0
0.857143 4 0
1.14286 4 0
1.42857 4 0
1.71429 4 0
2 4 0
2.28571 4 0
2.57143 4 0
2.85714 4 0
3.14286 4 0
3.42857 4 0
3.71429 4 0
4 4 0
CELLS 196 980
4 0 1 16 15
4 1 2 17 16
4 2 3 18 17
4 3 4 19 18
4 4 5 20 19
4 5 6 21 20
4 6 7 22 21
4 7 8 23 22
4 8 9 24 23
4 9 10 25 24
4 10 11 26 25
4 11 12 27 26
4 12 13 28 27
4 13 14 29 28
4 15 16 31 30
4 16 17 32 31
4 17 18 33 32
4 18 19 34 33
4 19 20 35 34
4 20 21 36 35
4 21 22 37 36
4 22 23 38 37
4 23 24 39 38
4 24 25 40 39
4 25 26 41 40
4 26 27 42 41
4 27 28 43 42
4 28 29 44 43
4 30 31 46 45
4 31 32 47 46
4 32 33 48 47
4 33 34 49 48
4 34 35 50 49
4 35 36 51 50
4 36 37 52 51
4 37 38 53 52
4 38 39 54 53
4 39 40 55 54
4 40 41 56 55
4 41 42 57 56
4 42 43 58 57
4 43 44 59 58
4 45 46 61 60
4 46 47 62 61
4 47 48 63 62
4 48 49 64 63
4 49 50 65 64
4 50 51 66 65
4 51 52 67 66
4 52 53 68 67
4 53 54 69 68
4 54 55 70 69
4 55 56 71 70
4 56 57 72 71
4 57 58 73 72
4 58 59 74 73
4 60 61 76 75
4 61 62 77 76
4 62 63 78 77
4 63 64 79 78
4 64 65 80 79
4 65 66 81 80
4 66 67 82 81
4 67 68 83 82
4 68 69 84 83
4 69 70 85 84
4 70 71 86 85
4 71 72 87 86
4 72 73 88 87
4 73 74 89 88
4 75 76 91 90
4 76 77 92 91
4 77 78 93 92
4 78 79 94 93
4 79 80 95 94
4 80 81 96 95
4 81 82 97 96
4 82 83 98 97
4 83 84 99 98
4 84 85 100 99
4 85 86 101 100
4 86 87 102 101
4 87 88 103 102
4 88 89 104 103
4 90 91 106 105
4 91 92 107 106
4 92 93 108 107
4 93 94 109 108
4 94 95 110 109
4 95 96 111 110
4 96 97 112 111
4 97 98 113 112
4 98 99 114 113
4 99 100 115 114
4 100 101 116 115
4 101 102 117 116
4 102 103 118 117
4 103 104 119 118
4 105 106 121 120
4 106 107 122 121
4 107 108 123 122
4 108 109 124 123
4 109 110 125 124
4 110 111 126 125
4 111 112 127 126
4 112 113 128 127
4 113 114 129 128
4 114 115 130 129
4 115 116 131 130
4 116 117 132 131
4 117 118 133 132
4 118 119 134 133
4 120 121 136 135
4 121 122 137 136
4 122 123 138 137
4 123 124 139 138
4 124 125 140 139
4 125 126 141 140
4 126 127 142 141
4 127 128 143 142
4 128 129 144 143
4 129 130 145 144
4 130 131 146 145
4 131 132 147 146
4 132 133 148 147
4 133 134 149 148
4 135 136 151 150
4 136 137 152 151
4 137 138 153 152
4 138 139 154 153
4 139 140 155 154
4 140 141 156 155
4 141 142 157 156
4 142 143 158 157
4 143 144 159 158
4 144 145 160 159
4 145 146 161 160
4 146 147 162 161
4 147 148 163 162
4 148 149 164 163
4 150 151 166 165
4 151 152 167 166
4 152 153 168 167
4 153 154 169 168
4 154 155 170 169
4 155 156 171 170
4 156 157 172 171
4 157 158 173 172
4 158 159 174 173
4 159 160 175 174
4 160 161 176 175
4 161 162 177 176
4 162 163 178 177
4 163 164 179 178
4 165 166 181 180
4 166 167 182 181
4 167 168 183 182
4 168 169 184 183
4 169 170 185 184
4 170 171 186 185
4 171 172 187 186
4 172 173 188 187
4 173 174 189 188
4 174 175 190 189
4 175 176 191 190
4 176 177 192 191
4 177 178 193 192
4 178 179 194 193
4 180 181 196 195
4 181 182 197 196
4 182 183 198 197
4 183 184 199 198
4 184 185 200 199
4 185 186 201 200
4 186 187 202 201
4 187 188 203 202
4 188 189 204 203
4 189 190 205 204
4 190 191 206 205
4 191 192 207 206
4 192 193 208 207
4 193 194 209 208
4 195 196 211 210
4 196 197 212 211
4 197 198 213 212
4 198 199 214 213
4 199 200 215 214
4 200 201 216 215
4 201 202 217 216
4 202 203 218 217
4 203 204 219 218
4 204 205 220 219
4 205 206 221 220
4 206 207 222 221
4 207 208 223 222
4 208 209 224 223
CELL_TYPES 196
9
9
9
9
9
9
9
9
9
9
9
9
9
9
9
9
9
9
9
9
9
9
9
9
9
9
9
9
9
9
9
9
9
9
9
9
9
9
9
9
9
9
9
9
9
9
9
9
9
9
9
9
9
9
9
9
9
9
9
9
9
9
9
9
9
9
9
9
9
9
9
9
9
9
9
9
9
9
9
9
9
9
9
9
9
9
9
9
9
9
9
9
9
9
9
9
9
9
9
9
9
9
9
9
9
9
9
9
9
9
9
9
9
9
9
9
9
9
9
9
9
9
9
9
9
9
9
9
9
9
9
9
9
9
9
9
9
9
9
9
9
9
9
9
9
9
9
9
9
9
9
9
9
9
9
9
9
9
9
9
9
9
9
9
9
9
9
9
9
9
9
9
9
9
9
9
9
9
9
9
9
9
9
9
9
9
9
9
9
9
9
9
9
9
9
9
CELL_DATA 196
SCALARS material int
LOOKUP_TABLE default
1
1
1
1
1
1
1
1
1
1
1
1
1
1
1
1
1
1
1
1
1
1
1
1
1
1
1
1
1
1
1
1
1
1
1
1
1
1
1
1
1
1
1
1
1
1
1
1
1
1
1
1
1
1
1
1
1
1
1
1
1
1
1
1
1
1
1
1
1
1
1
1
1
1
1
1
1
1
1
1
1
1
1
1
1
1
1
1
1
1
1
1
1
1
1
1
1
1
1
1
1
1
1
1
1
1
1
1
1
1
1
1
1
1
1
1
1
1
1
1
1
1
1
1
1
1
1
1
1
1
1
1
1
1
1
1
1
1
1
1
1
1
1
1
1
1
1
1
1
1
1
1
1
1
1
1
1
1
1
1
1
1
1
1
1
1
1
1
1
1
1
1
1
1
1
1
1
1
1
1
1
1
1
1
1
1
1
1
1
1
1
1
1
1
1
1
