# vtk DataFile Version 3.0
Generated by MFEM
ASCII
DATASET UNSTRUCTURED_GRID
POINTS 6 double
0 0 0
1 0 0
2 0 0
0 1 0
1 1 0
2 1 0
CELLS 2 10
4 0 1 4 3
4 1 2 5 4
CELL_TYPES 2
9
9
CELL_DATA 2
SCALARS material int
LOOKUP_TABLE default
1
1

